Twisted  2 layerstheta=  59.999998 degree.
           4 atoms
 
   2  atom types
 
    0.00000000    2.46000000 xlo xhi
    0.00000000    2.13042249 ylo yhi
  -40.00000000   60.00000000 zlo zhi
   -1.23000000    0.00000000    0.00000000 xy xz yz
 
 Atoms
 
    1    1   -0.00000000000000   -0.00000000000000   10.00000000000000
    2    1    0.00000000000000    1.42028166220648   10.00000000000000
    3    2    1.23000000000000    0.71014083110324   13.36000000000000
    4    2   -0.00000000000000   -0.00000000000000   13.36000000000000
